#define GAFF
#define UFF

[ defaults ]
1 3 yes 0.5 0.5

[ atomtypes ]
; name   at.num      mass       charge   ptype     sigma (nm)    epsilon (kJ/mol)
UF_Li        3     6.940037    0.000000    A      2.183593E-01    1.046000E-01
c3           6    12.010736    0.000000    A      3.399670E-01    4.577296E-01
c            6    12.010736    0.000000    A      3.399670E-01    3.598240E-01
h1           1     1.007941    0.000000    A      2.471353E-01    6.568880E-02
h2           1     1.007941    0.000000    A      2.293173E-01    6.568880E-02
os           8    15.999405    0.000000    A      3.000012E-01    7.112800E-01
o            8    15.999405    0.000000    A      2.959922E-01    8.786400E-01
f            9    18.998403    0.000000    A      3.118146E-01    2.552240E-01
no           7    14.006703    0.000000    A      3.249999E-01    7.112800E-01

#include "Li.itp"
#include "FEC.itp"
#include "NO3.itp"

[ system ]
Li-FEC-NO3

[ molecules ]
Li   50
FEC   50
NO3   50
