EC
    10
    1MOL     C1    1   0.000   0.077  -0.130
    1MOL     C2    2   0.000  -0.077  -0.130
    1MOL     H3    3  -0.077   0.121  -0.193
    1MOL     H4    4   0.097   0.119  -0.156
    1MOL     H5    5  -0.097  -0.119  -0.156
    1MOL     H6    6   0.077  -0.121  -0.193
    1MOL     C7    7   0.000   0.000   0.085
    1MOL     O8    8   0.028  -0.108   0.007
    1MOL     O9    9  -0.028   0.108   0.007
    1MOL    O10   10   0.000   0.000   0.204
   0.00000   0.00000   0.00000   0.00000   0.00000   0.00000   0.00000   0.00000   0.00000
