; Created by Sobtop (http://sobereva.com/soft/sobtop) Version 2026.1.16 on 2026-07-29

[ atomtypes ]
; name   at.num      mass       charge   ptype     sigma (nm)    epsilon (kJ/mol)
UF_C         6    12.010736    0.000000    A      3.430851E-01    4.393200E-01
UF_H         1     1.007941    0.000000    A      2.571134E-01    1.840960E-01
os           8    15.999405    0.000000    A      3.000012E-01    7.112800E-01

[ moleculetype ]
; name          nrexcl
EC       3

[ atoms ]
;  Index   type   residue  resname   atom         cgnr     charge       mass
     1     UF_C       1      MOL     C1             1    0.10346686   12.010736
     2     UF_C       1      MOL     C2             2    0.10102049   12.010736
     3     UF_H       1      MOL     H3             3    0.08379357    1.007941
     4     UF_H       1      MOL     H4             4    0.08379357    1.007941
     5     UF_H       1      MOL     H5             5    0.08437261    1.007941
     6     UF_H       1      MOL     H6             6    0.08437261    1.007941
     7     UF_C       1      MOL     C7             7    0.91430753   12.010736
     8     os         1      MOL     O8             8   -0.41759471   15.999405
     9     os         1      MOL     O9             9   -0.41812760   15.999405
    10     os         1      MOL     O10           10   -0.61940493   15.999405

; No pair needs to generate

; No improper needs to generate
