define =
integrator = md

dt         = 0.001
nsteps     = 5000000
comm-grps  = system
energygrps =
;
nstxout = 0
nstvout = 0
nstfout = 0
nstlog  = 500
nstenergy = 500
nstxout-compressed = 1000
compressed-x-grps  = system
;
annealing = single
annealing_npoints = 7
annealing_time = 0 1000 3000 4000 6000 7000 12000
annealing_temp = 298 500 500 400 400 298 298
;
pbc = xyz
cutoff-scheme = Verlet
coulombtype   = PME
rcoulomb      = 1.0
vdwtype       = Cut-off
rvdw          = 1.0
DispCorr      = EnerPres
;
Tcoupl  = V-rescale
tau_t   = 0.5
tc_grps = system
ref_t   = 298
;

Pcoupl     = C-rescale
pcoupltype = isotropic
tau_p = 1
ref_p = 1.01325
compressibility = 8.5e-5
;
gen_vel  = no
gen_temp = 298
gen_seed = -1
;
freezegrps  =
freezedim   =
constraints = hbonds
