; Created by Sobtop (http://sobereva.com/soft/sobtop) Version 2026.1.16 on 2026-07-29

[ atomtypes ]
; name   at.num      mass       charge   ptype     sigma (nm)    epsilon (kJ/mol)
UF_Li        3     6.940037    0.000000    A      2.183593E-01    1.046000E-01

[ moleculetype ]
; name          nrexcl
Li       3

[ atoms ]
;  Index   type   residue  resname   atom         cgnr     charge       mass
     1     UF_Li      1      MOL     Li1            1    1.00000000    6.940037

; No pair needs to generate

; No improper needs to generate
