; Created by Sobtop (http://sobereva.com/soft/sobtop) Version 2026.1.16 on 2026-07-29

[ atomtypes ]
; name   at.num      mass       charge   ptype     sigma (nm)    epsilon (kJ/mol)
no           7    14.006703    0.000000    A      3.249999E-01    7.112800E-01
o            8    15.999405    0.000000    A      2.959922E-01    8.786400E-01

[ moleculetype ]
; name          nrexcl
NO3       3

[ atoms ]
;  Index   type   residue  resname   atom         cgnr     charge       mass
     1     no         1      MOL     N1             1    0.97953637   14.006703
     2     o          1      MOL     O2             2   -0.68679809   15.999405
     3     o          1      MOL     O3             3   -0.68675966   15.999405
     4     o          1      MOL     O4             4   -0.60597863   15.999405
 
[ bonds ]
;  atom_i   atom_j  functype      r0 (nm)    k (kJ/mol/nm^2)
     1        2         1        0.122600     6.207382E+05     ; N1-O2, prebuilt no-o
     1        3         1        0.122600     6.207382E+05     ; N1-O3, prebuilt no-o
     1        4         1        0.122600     6.207382E+05     ; N1-O4, prebuilt no-o
 
[ angles ]
;  atom_i   atom_j   atom_k  functype    a0 (Deg.)  k (kJ/mol/rad^2)
     2        1        3         1       125.080      6.418256E+02     ; O2-N1-O3, prebuilt o-no-o
     2        1        4         1       125.080      6.418256E+02     ; O2-N1-O4, prebuilt o-no-o
     3        1        4         1       125.080      6.418256E+02     ; O3-N1-O4, prebuilt o-no-o

; No pair needs to generate

; No improper needs to generate
