#define GAFF
#define UFF

[ defaults ]
1 3 yes 0.5 0.5

[ atomtypes ]
; name   at.num      mass       charge   ptype     sigma (nm)    epsilon (kJ/mol)
UF_Li        3     6.940037    0.000000    A      2.183593E-01    1.046000E-01
no           7    14.006703    0.000000    A      3.249999E-01    7.112800E-01
o            8    15.999405    0.000000    A      2.959922E-01    8.786400E-01
UF_C         6    12.010736    0.000000    A      3.430851E-01    4.393200E-01
UF_H         1     1.007941    0.000000    A      2.571134E-01    1.840960E-01
os           8    15.999405    0.000000    A      3.000012E-01    7.112800E-01

#include "Li.itp"
#include "NO3.itp"
#include "EC.itp"

[ system ]
Li-NO3-EC

[ molecules ]
Li   100
NO3   100
EC   500
