FEC
    10
    1MOL     C1    1   0.054   0.117  -0.025
    1MOL     C2    2   0.100  -0.016   0.033
    1MOL     C3    3  -0.115  -0.018  -0.000
    1MOL     H4    4   0.112   0.200   0.010
    1MOL     H5    5   0.059   0.114  -0.132
    1MOL     H6    6   0.098  -0.012   0.140
    1MOL     O7    7  -0.081   0.122   0.018
    1MOL     O8    8   0.000  -0.105  -0.016
    1MOL     O9    9  -0.234  -0.060  -0.003
    1MOL    F10   10   0.224  -0.050  -0.006
   0.00000   0.00000   0.00000   0.00000   0.00000   0.00000   0.00000   0.00000   0.00000
