EC
    10
    1MOL     C1    1   0.130  -0.076  -0.012
    1MOL     C2    2   0.130   0.076   0.012
    1MOL     H3    3   0.193  -0.131   0.057
    1MOL     H4    4   0.156  -0.102  -0.115
    1MOL     H5    5   0.156   0.102   0.115
    1MOL     H6    6   0.193   0.131  -0.057
    1MOL     C7    7  -0.085   0.000   0.000
    1MOL     O8    8  -0.007   0.111  -0.011
    1MOL     O9    9  -0.007  -0.111   0.011
    1MOL    O10   10  -0.204   0.000  -0.000
   0.00000   0.00000   0.00000   0.00000   0.00000   0.00000   0.00000   0.00000   0.00000
