; Created by Sobtop (http://sobereva.com/soft/sobtop) Version 2026.1.16 on 2026-07-30

[ atomtypes ]
; name   at.num      mass       charge   ptype     sigma (nm)    epsilon (kJ/mol)
c3           6    12.010736    0.000000    A      3.399670E-01    4.577296E-01
h1           1     1.007941    0.000000    A      2.471353E-01    6.568880E-02
c            6    12.010736    0.000000    A      3.399670E-01    3.598240E-01
os           8    15.999405    0.000000    A      3.000012E-01    7.112800E-01
o            8    15.999405    0.000000    A      2.959922E-01    8.786400E-01

[ moleculetype ]
; name          nrexcl
EC       3

[ atoms ]
;  Index   type   residue  resname   atom         cgnr     charge       mass
     1     c3         1      MOL     C1             1    0.09777637   12.010736
     2     c3         1      MOL     C2             2    0.09777240   12.010736
     3     h1         1      MOL     H3             3    0.06213572    1.007941
     4     h1         1      MOL     H4             4    0.06213572    1.007941
     5     h1         1      MOL     H5             5    0.06213676    1.007941
     6     h1         1      MOL     H6             6    0.06213676    1.007941
     7     c          1      MOL     C7             7    0.86065439   12.010736
     8     os         1      MOL     O8             8   -0.37339720   15.999405
     9     os         1      MOL     O9             9   -0.37339785   15.999405
    10     o          1      MOL     O10           10   -0.55795306   15.999405
 
[ bonds ]
;  atom_i   atom_j  functype      r0 (nm)    k (kJ/mol/nm^2)
     1        2         1        0.153750     2.517931E+05     ; C1-C2, prebuilt c3-c3
     1        3         1        0.109690     2.766461E+05     ; C1-H3, prebuilt c3-h1
     1        4         1        0.109690     2.766461E+05     ; C1-H4, prebuilt c3-h1
     1        9         1        0.143160     2.582365E+05     ; C1-O9, prebuilt c3-os
     2        5         1        0.109690     2.766461E+05     ; C2-H5, prebuilt c3-h1
     2        6         1        0.109690     2.766461E+05     ; C2-H6, prebuilt c3-h1
     2        8         1        0.143160     2.582365E+05     ; C2-O8, prebuilt c3-os
     7        8         1        0.135840     3.270214E+05     ; C7-O8, prebuilt c-os
     7        9         1        0.135840     3.270214E+05     ; C7-O9, prebuilt c-os
     7       10         1        0.121830     5.336274E+05     ; C7-O10, prebuilt c-o
 
[ angles ]
;  atom_i   atom_j   atom_k  functype    a0 (Deg.)  k (kJ/mol/rad^2)
     2        1        3         1       109.560      3.882752E+02     ; C2-C1-H3, prebuilt c3-c3-h1
     2        1        4         1       109.560      3.882752E+02     ; C2-C1-H4, prebuilt c3-c3-h1
     2        1        9         1       107.970      5.690240E+02     ; C2-C1-O9, prebuilt c3-c3-os
     3        1        4         1       108.460      3.280256E+02     ; H3-C1-H4, prebuilt h1-c3-h1
     3        1        9         1       109.780      4.250944E+02     ; H3-C1-O9, prebuilt h1-c3-os
     4        1        9         1       109.780      4.250944E+02     ; H4-C1-O9, prebuilt h1-c3-os
     1        2        5         1       109.560      3.882752E+02     ; C1-C2-H5, prebuilt c3-c3-h1
     1        2        6         1       109.560      3.882752E+02     ; C1-C2-H6, prebuilt c3-c3-h1
     1        2        8         1       107.970      5.690240E+02     ; C1-C2-O8, prebuilt c3-c3-os
     5        2        6         1       108.460      3.280256E+02     ; H5-C2-H6, prebuilt h1-c3-h1
     5        2        8         1       109.780      4.250944E+02     ; H5-C2-O8, prebuilt h1-c3-os
     6        2        8         1       109.780      4.250944E+02     ; H6-C2-O8, prebuilt h1-c3-os
     8        7        9         1       111.290      6.326208E+02     ; O8-C7-O9, prebuilt os-c-os
     8        7       10         1       123.250      6.301104E+02     ; O8-C7-O10, prebuilt o-c-os
     9        7       10         1       123.250      6.301104E+02     ; O9-C7-O10, prebuilt o-c-os
     2        8        7         1       115.980      5.296944E+02     ; C2-O8-C7, prebuilt c-os-c3
     1        9        7         1       115.980      5.296944E+02     ; C1-O9-C7, prebuilt c-os-c3
 
[ dihedrals ] ; propers
;  atom_i   atom_j   atom_k   atom_l  functype   d0 (Deg.)   k (kJ/mol/rad^2)    ; Case of functype=2
;  atom_i   atom_j   atom_k   atom_l  functype  phase (Deg.)  kd (kJ/mol) pn     ; Case of functype=9
     1        2        8        7         9         0.000       1.60247    3     ; C1-C2-O8-C7, prebuilt c3-c3-os-c
     1        2        8        7         9       180.000       3.34720    1     ; C1-C2-O8-C7, prebuilt c3-c3-os-c
     1        9        7        8         9       180.000      11.29680    2     ; C1-O9-C7-O8, prebuilt X-c-os-X
     1        9        7       10         9       180.000      11.29680    2     ; C1-O9-C7-O10, prebuilt o-c-os-c3
     1        9        7       10         9       180.000       5.85760    1     ; C1-O9-C7-O10, prebuilt o-c-os-c3
     2        1        9        7         9         0.000       1.60247    3     ; C2-C1-O9-C7, prebuilt c3-c3-os-c
     2        1        9        7         9       180.000       3.34720    1     ; C2-C1-O9-C7, prebuilt c3-c3-os-c
     2        8        7        9         9       180.000      11.29680    2     ; C2-O8-C7-O9, prebuilt X-c-os-X
     2        8        7       10         9       180.000      11.29680    2     ; C2-O8-C7-O10, prebuilt o-c-os-c3
     2        8        7       10         9       180.000       5.85760    1     ; C2-O8-C7-O10, prebuilt o-c-os-c3
     3        1        2        5         9         0.000       0.65084    3     ; H3-C1-C2-H5, prebuilt X-c3-c3-X
     3        1        2        6         9         0.000       0.65084    3     ; H3-C1-C2-H6, prebuilt X-c3-c3-X
     3        1        2        8         9         0.000       0.00000    3     ; H3-C1-C2-O8, prebuilt h1-c3-c3-os
     3        1        2        8         9         0.000       1.04600    1     ; H3-C1-C2-O8, prebuilt h1-c3-c3-os
     3        1        9        7         9         0.000       1.60387    3     ; H3-C1-O9-C7, prebuilt X-c3-os-X
     4        1        2        5         9         0.000       0.65084    3     ; H4-C1-C2-H5, prebuilt X-c3-c3-X
     4        1        2        6         9         0.000       0.65084    3     ; H4-C1-C2-H6, prebuilt X-c3-c3-X
     4        1        2        8         9         0.000       0.00000    3     ; H4-C1-C2-O8, prebuilt h1-c3-c3-os
     4        1        2        8         9         0.000       1.04600    1     ; H4-C1-C2-O8, prebuilt h1-c3-c3-os
     4        1        9        7         9         0.000       1.60387    3     ; H4-C1-O9-C7, prebuilt X-c3-os-X
     5        2        1        9         9         0.000       0.00000    3     ; H5-C2-C1-O9, prebuilt h1-c3-c3-os
     5        2        1        9         9         0.000       1.04600    1     ; H5-C2-C1-O9, prebuilt h1-c3-c3-os
     5        2        8        7         9         0.000       1.60387    3     ; H5-C2-O8-C7, prebuilt X-c3-os-X
     6        2        1        9         9         0.000       0.00000    3     ; H6-C2-C1-O9, prebuilt h1-c3-c3-os
     6        2        1        9         9         0.000       1.04600    1     ; H6-C2-C1-O9, prebuilt h1-c3-c3-os
     6        2        8        7         9         0.000       1.60387    3     ; H6-C2-O8-C7, prebuilt X-c3-os-X
     8        2        1        9         9         0.000       0.60250    3     ; O8-C2-C1-O9, prebuilt os-c3-c3-os
     8        2        1        9         9         0.000       4.91620    2     ; O8-C2-C1-O9, prebuilt os-c3-c3-os

[ pairs ] ; Yielded based on rotatable dihedrals
;  atom_i   atom_j  functype
     1       10         1     ; C1-O9-C7-O10
     2       10         1     ; C2-O8-C7-O10
     3        5         1     ; H3-C1-C2-H5
     3        6         1     ; H3-C1-C2-H6
     3        8         1     ; H3-C1-C2-O8
     3        7         1     ; H3-C1-O9-C7
     4        5         1     ; H4-C1-C2-H5
     4        6         1     ; H4-C1-C2-H6
     4        8         1     ; H4-C1-C2-O8
     4        7         1     ; H4-C1-O9-C7
     5        9         1     ; H5-C2-C1-O9
     5        7         1     ; H5-C2-O8-C7
     6        9         1     ; H6-C2-C1-O9
     6        7         1     ; H6-C2-O8-C7
 
[ dihedrals ] ; impropers
; atom_i   atom_j   atom_k   atom_l  functype  phase (Deg.)  kd (kJ/mol)  pn
     8        9        7       10         4       180.000      43.93200    2     ; O8-O9-C7-O10, prebuilt X-X-c-o
